This is the initial atom setup of ././lammps_files/ctrj1.lmpdata
16 atoms 
2 atom types 
8 ellipsoids
8 bonds 
8 bond types 
0.0 16.748023074035522 xlo xhi 
0.0 16.748023074035522 ylo yhi 
-4.2 4.2 zlo zhi 

Atoms

1	 1	 2.6870057685088806	 0.0	 0.001	 1	 0.002573970910134561	 0.0	 0	 0	 0	 0.4	 1 #atom_id|type|x0|y0|z0|e_flag|rho|m|mx|my|mz|chi|trap_id
2	 1	 14.061017305526642	 0.0	 0.001	 1	 0.002573970910134561	 0.0	 0	 0	 0	 0.4	 2 #atom_id|type|x0|y0|z0|e_flag|rho|m|mx|my|mz|chi|trap_id
3	 1	 2.6870057685088806	 8.374011537017761	 0.001	 1	 0.002573970910134561	 0.0	 0	 0	 0	 0.4	 3 #atom_id|type|x0|y0|z0|e_flag|rho|m|mx|my|mz|chi|trap_id
4	 1	 11.061017305526642	 8.374011537017761	 0.001	 1	 0.002573970910134561	 0.0	 0	 0	 0	 0.4	 4 #atom_id|type|x0|y0|z0|e_flag|rho|m|mx|my|mz|chi|trap_id
5	 1	 1.6453165068474375e-16	 2.6870057685088806	 0.001	 1	 0.002573970910134561	 0.0	 0	 0	 0	 0.4	 5 #atom_id|type|x0|y0|z0|e_flag|rho|m|mx|my|mz|chi|trap_id
6	 1	 8.374011537017761	 5.687005768508881	 0.001	 1	 0.002573970910134561	 0.0	 0	 0	 0	 0.4	 6 #atom_id|type|x0|y0|z0|e_flag|rho|m|mx|my|mz|chi|trap_id
7	 1	 3.4822867055684674e-16	 14.061017305526642	 0.001	 1	 0.002573970910134561	 0.0	 0	 0	 0	 0.4	 7 #atom_id|type|x0|y0|z0|e_flag|rho|m|mx|my|mz|chi|trap_id
8	 1	 8.374011537017761	 14.061017305526642	 0.001	 1	 0.002573970910134561	 0.0	 0	 0	 0	 0.4	 8 #atom_id|type|x0|y0|z0|e_flag|rho|m|mx|my|mz|chi|trap_id
9	 2	 4.187005768508881	 0.0	 0.0	 0	 1	 0	 -3.0	 -0.0	 -0.0	 0	 1 #trap id|type|x0|y0|z0|e_flag|null|0|dx|dy|dz|0|atom_id
10	 2	 12.561017305526642	 0.0	 0.0	 0	 1	 0	 3.0	 0.0	 0.0	 0	 2 #trap id|type|x0|y0|z0|e_flag|null|0|dx|dy|dz|0|atom_id
11	 2	 4.187005768508881	 8.374011537017761	 0.0	 0	 1	 0	 -3.0	 -0.0	 -0.0	 0	 3 #trap id|type|x0|y0|z0|e_flag|null|0|dx|dy|dz|0|atom_id
12	 2	 12.561017305526642	 8.374011537017761	 0.0	 0	 1	 0	 -3.0	 -0.0	 -0.0	 0	 4 #trap id|type|x0|y0|z0|e_flag|null|0|dx|dy|dz|0|atom_id
13	 2	 2.5638016062079523e-16	 4.187005768508881	 0.0	 0	 1	 0	 -1.8369701987210297e-16	 -3.0	 -0.0	 0	 5 #trap id|type|x0|y0|z0|e_flag|null|0|dx|dy|dz|0|atom_id
14	 2	 8.374011537017761	 4.187005768508881	 0.0	 0	 1	 0	 1.8369701987210297e-16	 3.0	 0.0	 0	 6 #trap id|type|x0|y0|z0|e_flag|null|0|dx|dy|dz|0|atom_id
15	 2	 2.5638016062079523e-16	 12.561017305526642	 0.0	 0	 1	 0	 1.8369701987210297e-16	 3.0	 0.0	 0	 7 #trap id|type|x0|y0|z0|e_flag|null|0|dx|dy|dz|0|atom_id
16	 2	 8.374011537017761	 12.561017305526642	 0.0	 0	 1	 0	 1.8369701987210297e-16	 3.0	 0.0	 0	 8 #trap id|type|x0|y0|z0|e_flag|null|0|dx|dy|dz|0|atom_id

Bonds

1 1 9 1
2 2 10 2
3 3 11 3
4 4 12 4
5 5 13 5
6 6 14 6
7 7 15 7
8 8 16 8

Bond Coeffs

1  0.09999999999999999 7.111111111111113e-06
2  0.09999999999999999 7.111111111111113e-06
3  0.09999999999999999 7.111111111111113e-06
4  0.09999999999999999 7.111111111111113e-06
5  0.09999999999999999 7.111111111111113e-06
6  0.09999999999999999 7.111111111111113e-06
7  0.09999999999999999 7.111111111111113e-06
8  0.09999999999999999 7.111111111111113e-06

Ellipsoids

1, 2.8, 2.8, 2.8, 0.3778108177787459, -0.6212750756137537, 0.46358101597530654, 0.5063288536295186, #atom_id|shapex|shapey|shapez|quatw|quati|quatj|quatk
2, 2.8, 2.8, 2.8, 0.09574377574771774, 0.2965805681181888, 0.9497258302765617, -0.029898885025344324, #atom_id|shapex|shapey|shapez|quatw|quati|quatj|quatk
3, 2.8, 2.8, 2.8, 0.7783518492999697, 0.17820671949060185, 0.2541754520947178, -0.5457156799764515, #atom_id|shapex|shapey|shapez|quatw|quati|quatj|quatk
4, 2.8, 2.8, 2.8, 0.3417833907463595, -0.48057094199273565, 0.779648940704268, 0.21067323698288976, #atom_id|shapex|shapey|shapez|quatw|quati|quatj|quatk
5, 2.8, 2.8, 2.8, 0.5267302245031827, 0.4624905937380464, 0.4257515204103046, -0.5721829813678225, #atom_id|shapex|shapey|shapez|quatw|quati|quatj|quatk
6, 2.8, 2.8, 2.8, 0.505654114891519, 0.390362813892617, 0.7186758078528512, -0.2746559171584767, #atom_id|shapex|shapey|shapez|quatw|quati|quatj|quatk
7, 2.8, 2.8, 2.8, 0.9084173735825872, 0.0884397771318966, 0.3258078480266346, -0.24658776806327606, #atom_id|shapex|shapey|shapez|quatw|quati|quatj|quatk
8, 2.8, 2.8, 2.8, 0.29477002784082135, 0.6885070351594006, 0.36855359428708057, -0.5506695391619254, #atom_id|shapex|shapey|shapez|quatw|quati|quatj|quatk

PairIJ Coeffs

1 1 lj/cut/dipole/cut 0.0 0.0 0.0 40
1 2 none
2 2 none

