This is the initial atom setup of ././lammps_files/ctrj1.lmpdata
400 atoms 
2 atom types 
200 ellipsoids
200 bonds 
200 bond types 
0.0 83.74011537017762 xlo xhi 
0.0 83.74011537017762 ylo yhi 
-4.199999999999999 4.199999999999999 zlo zhi 

Atoms

1	 1	 5.687005768508881	 0.0	 0.001	 1	 0.002573970910134561	 0.0	 0	 0	 0	 0.4	 1 #atom_id|type|x0|y0|z0|e_flag|rho|m|mx|my|mz|chi|trap_id
2	 1	 11.061017305526642	 0.0	 0.001	 1	 0.002573970910134561	 0.0	 0	 0	 0	 0.4	 2 #atom_id|type|x0|y0|z0|e_flag|rho|m|mx|my|mz|chi|trap_id
3	 1	 19.435028842544405	 0.0	 0.001	 1	 0.002573970910134561	 0.0	 0	 0	 0	 0.4	 3 #atom_id|type|x0|y0|z0|e_flag|rho|m|mx|my|mz|chi|trap_id
4	 1	 27.809040379562163	 0.0	 0.001	 1	 0.002573970910134561	 0.0	 0	 0	 0	 0.4	 4 #atom_id|type|x0|y0|z0|e_flag|rho|m|mx|my|mz|chi|trap_id
5	 1	 36.18305191657993	 0.0	 0.001	 1	 0.002573970910134561	 0.0	 0	 0	 0	 0.4	 5 #atom_id|type|x0|y0|z0|e_flag|rho|m|mx|my|mz|chi|trap_id
6	 1	 47.55706345359769	 0.0	 0.001	 1	 0.002573970910134561	 0.0	 0	 0	 0	 0.4	 6 #atom_id|type|x0|y0|z0|e_flag|rho|m|mx|my|mz|chi|trap_id
7	 1	 55.93107499061545	 0.0	 0.001	 1	 0.002573970910134561	 0.0	 0	 0	 0	 0.4	 7 #atom_id|type|x0|y0|z0|e_flag|rho|m|mx|my|mz|chi|trap_id
8	 1	 61.30508652763321	 0.0	 0.001	 1	 0.002573970910134561	 0.0	 0	 0	 0	 0.4	 8 #atom_id|type|x0|y0|z0|e_flag|rho|m|mx|my|mz|chi|trap_id
9	 1	 69.67909806465097	 0.0	 0.001	 1	 0.002573970910134561	 0.0	 0	 0	 0	 0.4	 9 #atom_id|type|x0|y0|z0|e_flag|rho|m|mx|my|mz|chi|trap_id
10	 1	 78.05310960166874	 0.0	 0.001	 1	 0.002573970910134561	 0.0	 0	 0	 0	 0.4	 10 #atom_id|type|x0|y0|z0|e_flag|rho|m|mx|my|mz|chi|trap_id
11	 1	 2.6870057685088806	 8.374011537017761	 0.001	 1	 0.002573970910134561	 0.0	 0	 0	 0	 0.4	 11 #atom_id|type|x0|y0|z0|e_flag|rho|m|mx|my|mz|chi|trap_id
12	 1	 14.061017305526642	 8.374011537017761	 0.001	 1	 0.002573970910134561	 0.0	 0	 0	 0	 0.4	 12 #atom_id|type|x0|y0|z0|e_flag|rho|m|mx|my|mz|chi|trap_id
13	 1	 19.435028842544405	 8.374011537017761	 0.001	 1	 0.002573970910134561	 0.0	 0	 0	 0	 0.4	 13 #atom_id|type|x0|y0|z0|e_flag|rho|m|mx|my|mz|chi|trap_id
14	 1	 27.809040379562163	 8.374011537017761	 0.001	 1	 0.002573970910134561	 0.0	 0	 0	 0	 0.4	 14 #atom_id|type|x0|y0|z0|e_flag|rho|m|mx|my|mz|chi|trap_id
15	 1	 36.18305191657993	 8.374011537017761	 0.001	 1	 0.002573970910134561	 0.0	 0	 0	 0	 0.4	 15 #atom_id|type|x0|y0|z0|e_flag|rho|m|mx|my|mz|chi|trap_id
16	 1	 44.55706345359769	 8.374011537017761	 0.001	 1	 0.002573970910134561	 0.0	 0	 0	 0	 0.4	 16 #atom_id|type|x0|y0|z0|e_flag|rho|m|mx|my|mz|chi|trap_id
17	 1	 55.93107499061545	 8.374011537017761	 0.001	 1	 0.002573970910134561	 0.0	 0	 0	 0	 0.4	 17 #atom_id|type|x0|y0|z0|e_flag|rho|m|mx|my|mz|chi|trap_id
18	 1	 64.30508652763321	 8.374011537017761	 0.001	 1	 0.002573970910134561	 0.0	 0	 0	 0	 0.4	 18 #atom_id|type|x0|y0|z0|e_flag|rho|m|mx|my|mz|chi|trap_id
19	 1	 72.67909806465097	 8.374011537017761	 0.001	 1	 0.002573970910134561	 0.0	 0	 0	 0	 0.4	 19 #atom_id|type|x0|y0|z0|e_flag|rho|m|mx|my|mz|chi|trap_id
20	 1	 78.05310960166874	 8.374011537017761	 0.001	 1	 0.002573970910134561	 0.0	 0	 0	 0	 0.4	 20 #atom_id|type|x0|y0|z0|e_flag|rho|m|mx|my|mz|chi|trap_id
21	 1	 5.687005768508881	 16.748023074035522	 0.001	 1	 0.002573970910134561	 0.0	 0	 0	 0	 0.4	 21 #atom_id|type|x0|y0|z0|e_flag|rho|m|mx|my|mz|chi|trap_id
22	 1	 14.061017305526642	 16.748023074035522	 0.001	 1	 0.002573970910134561	 0.0	 0	 0	 0	 0.4	 22 #atom_id|type|x0|y0|z0|e_flag|rho|m|mx|my|mz|chi|trap_id
23	 1	 19.435028842544405	 16.748023074035522	 0.001	 1	 0.002573970910134561	 0.0	 0	 0	 0	 0.4	 23 #atom_id|type|x0|y0|z0|e_flag|rho|m|mx|my|mz|chi|trap_id
24	 1	 27.809040379562163	 16.748023074035522	 0.001	 1	 0.002573970910134561	 0.0	 0	 0	 0	 0.4	 24 #atom_id|type|x0|y0|z0|e_flag|rho|m|mx|my|mz|chi|trap_id
25	 1	 36.18305191657993	 16.748023074035522	 0.001	 1	 0.002573970910134561	 0.0	 0	 0	 0	 0.4	 25 #atom_id|type|x0|y0|z0|e_flag|rho|m|mx|my|mz|chi|trap_id
26	 1	 44.55706345359769	 16.748023074035522	 0.001	 1	 0.002573970910134561	 0.0	 0	 0	 0	 0.4	 26 #atom_id|type|x0|y0|z0|e_flag|rho|m|mx|my|mz|chi|trap_id
27	 1	 55.93107499061545	 16.748023074035522	 0.001	 1	 0.002573970910134561	 0.0	 0	 0	 0	 0.4	 27 #atom_id|type|x0|y0|z0|e_flag|rho|m|mx|my|mz|chi|trap_id
28	 1	 64.30508652763321	 16.748023074035522	 0.001	 1	 0.002573970910134561	 0.0	 0	 0	 0	 0.4	 28 #atom_id|type|x0|y0|z0|e_flag|rho|m|mx|my|mz|chi|trap_id
29	 1	 72.67909806465097	 16.748023074035522	 0.001	 1	 0.002573970910134561	 0.0	 0	 0	 0	 0.4	 29 #atom_id|type|x0|y0|z0|e_flag|rho|m|mx|my|mz|chi|trap_id
30	 1	 81.05310960166874	 16.748023074035522	 0.001	 1	 0.002573970910134561	 0.0	 0	 0	 0	 0.4	 30 #atom_id|type|x0|y0|z0|e_flag|rho|m|mx|my|mz|chi|trap_id
31	 1	 5.687005768508881	 25.122034611053284	 0.001	 1	 0.002573970910134561	 0.0	 0	 0	 0	 0.4	 31 #atom_id|type|x0|y0|z0|e_flag|rho|m|mx|my|mz|chi|trap_id
32	 1	 11.061017305526642	 25.122034611053284	 0.001	 1	 0.002573970910134561	 0.0	 0	 0	 0	 0.4	 32 #atom_id|type|x0|y0|z0|e_flag|rho|m|mx|my|mz|chi|trap_id
33	 1	 19.435028842544405	 25.122034611053284	 0.001	 1	 0.002573970910134561	 0.0	 0	 0	 0	 0.4	 33 #atom_id|type|x0|y0|z0|e_flag|rho|m|mx|my|mz|chi|trap_id
34	 1	 30.809040379562163	 25.122034611053284	 0.001	 1	 0.002573970910134561	 0.0	 0	 0	 0	 0.4	 34 #atom_id|type|x0|y0|z0|e_flag|rho|m|mx|my|mz|chi|trap_id
35	 1	 36.18305191657993	 25.122034611053284	 0.001	 1	 0.002573970910134561	 0.0	 0	 0	 0	 0.4	 35 #atom_id|type|x0|y0|z0|e_flag|rho|m|mx|my|mz|chi|trap_id
36	 1	 44.55706345359769	 25.122034611053284	 0.001	 1	 0.002573970910134561	 0.0	 0	 0	 0	 0.4	 36 #atom_id|type|x0|y0|z0|e_flag|rho|m|mx|my|mz|chi|trap_id
37	 1	 55.93107499061545	 25.122034611053284	 0.001	 1	 0.002573970910134561	 0.0	 0	 0	 0	 0.4	 37 #atom_id|type|x0|y0|z0|e_flag|rho|m|mx|my|mz|chi|trap_id
38	 1	 61.30508652763321	 25.122034611053284	 0.001	 1	 0.002573970910134561	 0.0	 0	 0	 0	 0.4	 38 #atom_id|type|x0|y0|z0|e_flag|rho|m|mx|my|mz|chi|trap_id
39	 1	 69.67909806465097	 25.122034611053284	 0.001	 1	 0.002573970910134561	 0.0	 0	 0	 0	 0.4	 39 #atom_id|type|x0|y0|z0|e_flag|rho|m|mx|my|mz|chi|trap_id
40	 1	 81.05310960166874	 25.122034611053284	 0.001	 1	 0.002573970910134561	 0.0	 0	 0	 0	 0.4	 40 #atom_id|type|x0|y0|z0|e_flag|rho|m|mx|my|mz|chi|trap_id
41	 1	 5.687005768508881	 33.496046148071045	 0.001	 1	 0.002573970910134561	 0.0	 0	 0	 0	 0.4	 41 #atom_id|type|x0|y0|z0|e_flag|rho|m|mx|my|mz|chi|trap_id
42	 1	 14.061017305526642	 33.496046148071045	 0.001	 1	 0.002573970910134561	 0.0	 0	 0	 0	 0.4	 42 #atom_id|type|x0|y0|z0|e_flag|rho|m|mx|my|mz|chi|trap_id
43	 1	 19.435028842544405	 33.496046148071045	 0.001	 1	 0.002573970910134561	 0.0	 0	 0	 0	 0.4	 43 #atom_id|type|x0|y0|z0|e_flag|rho|m|mx|my|mz|chi|trap_id
44	 1	 30.809040379562163	 33.496046148071045	 0.001	 1	 0.002573970910134561	 0.0	 0	 0	 0	 0.4	 44 #atom_id|type|x0|y0|z0|e_flag|rho|m|mx|my|mz|chi|trap_id
45	 1	 39.18305191657993	 33.496046148071045	 0.001	 1	 0.002573970910134561	 0.0	 0	 0	 0	 0.4	 45 #atom_id|type|x0|y0|z0|e_flag|rho|m|mx|my|mz|chi|trap_id
46	 1	 44.55706345359769	 33.496046148071045	 0.001	 1	 0.002573970910134561	 0.0	 0	 0	 0	 0.4	 46 #atom_id|type|x0|y0|z0|e_flag|rho|m|mx|my|mz|chi|trap_id
47	 1	 52.93107499061545	 33.496046148071045	 0.001	 1	 0.002573970910134561	 0.0	 0	 0	 0	 0.4	 47 #atom_id|type|x0|y0|z0|e_flag|rho|m|mx|my|mz|chi|trap_id
48	 1	 64.30508652763321	 33.496046148071045	 0.001	 1	 0.002573970910134561	 0.0	 0	 0	 0	 0.4	 48 #atom_id|type|x0|y0|z0|e_flag|rho|m|mx|my|mz|chi|trap_id
49	 1	 69.67909806465097	 33.496046148071045	 0.001	 1	 0.002573970910134561	 0.0	 0	 0	 0	 0.4	 49 #atom_id|type|x0|y0|z0|e_flag|rho|m|mx|my|mz|chi|trap_id
50	 1	 81.05310960166874	 33.496046148071045	 0.001	 1	 0.002573970910134561	 0.0	 0	 0	 0	 0.4	 50 #atom_id|type|x0|y0|z0|e_flag|rho|m|mx|my|mz|chi|trap_id
51	 1	 2.6870057685088806	 41.87005768508881	 0.001	 1	 0.002573970910134561	 0.0	 0	 0	 0	 0.4	 51 #atom_id|type|x0|y0|z0|e_flag|rho|m|mx|my|mz|chi|trap_id
52	 1	 14.061017305526642	 41.87005768508881	 0.001	 1	 0.002573970910134561	 0.0	 0	 0	 0	 0.4	 52 #atom_id|type|x0|y0|z0|e_flag|rho|m|mx|my|mz|chi|trap_id
53	 1	 22.435028842544405	 41.87005768508881	 0.001	 1	 0.002573970910134561	 0.0	 0	 0	 0	 0.4	 53 #atom_id|type|x0|y0|z0|e_flag|rho|m|mx|my|mz|chi|trap_id
54	 1	 27.809040379562163	 41.87005768508881	 0.001	 1	 0.002573970910134561	 0.0	 0	 0	 0	 0.4	 54 #atom_id|type|x0|y0|z0|e_flag|rho|m|mx|my|mz|chi|trap_id
55	 1	 36.18305191657993	 41.87005768508881	 0.001	 1	 0.002573970910134561	 0.0	 0	 0	 0	 0.4	 55 #atom_id|type|x0|y0|z0|e_flag|rho|m|mx|my|mz|chi|trap_id
56	 1	 47.55706345359769	 41.87005768508881	 0.001	 1	 0.002573970910134561	 0.0	 0	 0	 0	 0.4	 56 #atom_id|type|x0|y0|z0|e_flag|rho|m|mx|my|mz|chi|trap_id
57	 1	 52.93107499061545	 41.87005768508881	 0.001	 1	 0.002573970910134561	 0.0	 0	 0	 0	 0.4	 57 #atom_id|type|x0|y0|z0|e_flag|rho|m|mx|my|mz|chi|trap_id
58	 1	 61.30508652763321	 41.87005768508881	 0.001	 1	 0.002573970910134561	 0.0	 0	 0	 0	 0.4	 58 #atom_id|type|x0|y0|z0|e_flag|rho|m|mx|my|mz|chi|trap_id
59	 1	 69.67909806465097	 41.87005768508881	 0.001	 1	 0.002573970910134561	 0.0	 0	 0	 0	 0.4	 59 #atom_id|type|x0|y0|z0|e_flag|rho|m|mx|my|mz|chi|trap_id
60	 1	 81.05310960166874	 41.87005768508881	 0.001	 1	 0.002573970910134561	 0.0	 0	 0	 0	 0.4	 60 #atom_id|type|x0|y0|z0|e_flag|rho|m|mx|my|mz|chi|trap_id
61	 1	 2.6870057685088806	 50.24406922210657	 0.001	 1	 0.002573970910134561	 0.0	 0	 0	 0	 0.4	 61 #atom_id|type|x0|y0|z0|e_flag|rho|m|mx|my|mz|chi|trap_id
62	 1	 14.061017305526642	 50.24406922210657	 0.001	 1	 0.002573970910134561	 0.0	 0	 0	 0	 0.4	 62 #atom_id|type|x0|y0|z0|e_flag|rho|m|mx|my|mz|chi|trap_id
63	 1	 19.435028842544405	 50.24406922210657	 0.001	 1	 0.002573970910134561	 0.0	 0	 0	 0	 0.4	 63 #atom_id|type|x0|y0|z0|e_flag|rho|m|mx|my|mz|chi|trap_id
64	 1	 30.809040379562163	 50.24406922210657	 0.001	 1	 0.002573970910134561	 0.0	 0	 0	 0	 0.4	 64 #atom_id|type|x0|y0|z0|e_flag|rho|m|mx|my|mz|chi|trap_id
65	 1	 39.18305191657993	 50.24406922210657	 0.001	 1	 0.002573970910134561	 0.0	 0	 0	 0	 0.4	 65 #atom_id|type|x0|y0|z0|e_flag|rho|m|mx|my|mz|chi|trap_id
66	 1	 44.55706345359769	 50.24406922210657	 0.001	 1	 0.002573970910134561	 0.0	 0	 0	 0	 0.4	 66 #atom_id|type|x0|y0|z0|e_flag|rho|m|mx|my|mz|chi|trap_id
67	 1	 55.93107499061545	 50.24406922210657	 0.001	 1	 0.002573970910134561	 0.0	 0	 0	 0	 0.4	 67 #atom_id|type|x0|y0|z0|e_flag|rho|m|mx|my|mz|chi|trap_id
68	 1	 64.30508652763321	 50.24406922210657	 0.001	 1	 0.002573970910134561	 0.0	 0	 0	 0	 0.4	 68 #atom_id|type|x0|y0|z0|e_flag|rho|m|mx|my|mz|chi|trap_id
69	 1	 72.67909806465097	 50.24406922210657	 0.001	 1	 0.002573970910134561	 0.0	 0	 0	 0	 0.4	 69 #atom_id|type|x0|y0|z0|e_flag|rho|m|mx|my|mz|chi|trap_id
70	 1	 81.05310960166874	 50.24406922210657	 0.001	 1	 0.002573970910134561	 0.0	 0	 0	 0	 0.4	 70 #atom_id|type|x0|y0|z0|e_flag|rho|m|mx|my|mz|chi|trap_id
71	 1	 5.687005768508881	 58.618080759124325	 0.001	 1	 0.002573970910134561	 0.0	 0	 0	 0	 0.4	 71 #atom_id|type|x0|y0|z0|e_flag|rho|m|mx|my|mz|chi|trap_id
72	 1	 11.061017305526642	 58.618080759124325	 0.001	 1	 0.002573970910134561	 0.0	 0	 0	 0	 0.4	 72 #atom_id|type|x0|y0|z0|e_flag|rho|m|mx|my|mz|chi|trap_id
73	 1	 22.435028842544405	 58.618080759124325	 0.001	 1	 0.002573970910134561	 0.0	 0	 0	 0	 0.4	 73 #atom_id|type|x0|y0|z0|e_flag|rho|m|mx|my|mz|chi|trap_id
74	 1	 30.809040379562163	 58.618080759124325	 0.001	 1	 0.002573970910134561	 0.0	 0	 0	 0	 0.4	 74 #atom_id|type|x0|y0|z0|e_flag|rho|m|mx|my|mz|chi|trap_id
75	 1	 36.18305191657993	 58.618080759124325	 0.001	 1	 0.002573970910134561	 0.0	 0	 0	 0	 0.4	 75 #atom_id|type|x0|y0|z0|e_flag|rho|m|mx|my|mz|chi|trap_id
76	 1	 47.55706345359769	 58.618080759124325	 0.001	 1	 0.002573970910134561	 0.0	 0	 0	 0	 0.4	 76 #atom_id|type|x0|y0|z0|e_flag|rho|m|mx|my|mz|chi|trap_id
77	 1	 52.93107499061545	 58.618080759124325	 0.001	 1	 0.002573970910134561	 0.0	 0	 0	 0	 0.4	 77 #atom_id|type|x0|y0|z0|e_flag|rho|m|mx|my|mz|chi|trap_id
78	 1	 61.30508652763321	 58.618080759124325	 0.001	 1	 0.002573970910134561	 0.0	 0	 0	 0	 0.4	 78 #atom_id|type|x0|y0|z0|e_flag|rho|m|mx|my|mz|chi|trap_id
79	 1	 72.67909806465097	 58.618080759124325	 0.001	 1	 0.002573970910134561	 0.0	 0	 0	 0	 0.4	 79 #atom_id|type|x0|y0|z0|e_flag|rho|m|mx|my|mz|chi|trap_id
80	 1	 81.05310960166874	 58.618080759124325	 0.001	 1	 0.002573970910134561	 0.0	 0	 0	 0	 0.4	 80 #atom_id|type|x0|y0|z0|e_flag|rho|m|mx|my|mz|chi|trap_id
81	 1	 5.687005768508881	 66.99209229614209	 0.001	 1	 0.002573970910134561	 0.0	 0	 0	 0	 0.4	 81 #atom_id|type|x0|y0|z0|e_flag|rho|m|mx|my|mz|chi|trap_id
82	 1	 14.061017305526642	 66.99209229614209	 0.001	 1	 0.002573970910134561	 0.0	 0	 0	 0	 0.4	 82 #atom_id|type|x0|y0|z0|e_flag|rho|m|mx|my|mz|chi|trap_id
83	 1	 19.435028842544405	 66.99209229614209	 0.001	 1	 0.002573970910134561	 0.0	 0	 0	 0	 0.4	 83 #atom_id|type|x0|y0|z0|e_flag|rho|m|mx|my|mz|chi|trap_id
84	 1	 27.809040379562163	 66.99209229614209	 0.001	 1	 0.002573970910134561	 0.0	 0	 0	 0	 0.4	 84 #atom_id|type|x0|y0|z0|e_flag|rho|m|mx|my|mz|chi|trap_id
85	 1	 39.18305191657993	 66.99209229614209	 0.001	 1	 0.002573970910134561	 0.0	 0	 0	 0	 0.4	 85 #atom_id|type|x0|y0|z0|e_flag|rho|m|mx|my|mz|chi|trap_id
86	 1	 44.55706345359769	 66.99209229614209	 0.001	 1	 0.002573970910134561	 0.0	 0	 0	 0	 0.4	 86 #atom_id|type|x0|y0|z0|e_flag|rho|m|mx|my|mz|chi|trap_id
87	 1	 55.93107499061545	 66.99209229614209	 0.001	 1	 0.002573970910134561	 0.0	 0	 0	 0	 0.4	 87 #atom_id|type|x0|y0|z0|e_flag|rho|m|mx|my|mz|chi|trap_id
88	 1	 61.30508652763321	 66.99209229614209	 0.001	 1	 0.002573970910134561	 0.0	 0	 0	 0	 0.4	 88 #atom_id|type|x0|y0|z0|e_flag|rho|m|mx|my|mz|chi|trap_id
89	 1	 72.67909806465097	 66.99209229614209	 0.001	 1	 0.002573970910134561	 0.0	 0	 0	 0	 0.4	 89 #atom_id|type|x0|y0|z0|e_flag|rho|m|mx|my|mz|chi|trap_id
90	 1	 81.05310960166874	 66.99209229614209	 0.001	 1	 0.002573970910134561	 0.0	 0	 0	 0	 0.4	 90 #atom_id|type|x0|y0|z0|e_flag|rho|m|mx|my|mz|chi|trap_id
91	 1	 2.6870057685088806	 75.36610383315985	 0.001	 1	 0.002573970910134561	 0.0	 0	 0	 0	 0.4	 91 #atom_id|type|x0|y0|z0|e_flag|rho|m|mx|my|mz|chi|trap_id
92	 1	 11.061017305526642	 75.36610383315985	 0.001	 1	 0.002573970910134561	 0.0	 0	 0	 0	 0.4	 92 #atom_id|type|x0|y0|z0|e_flag|rho|m|mx|my|mz|chi|trap_id
93	 1	 19.435028842544405	 75.36610383315985	 0.001	 1	 0.002573970910134561	 0.0	 0	 0	 0	 0.4	 93 #atom_id|type|x0|y0|z0|e_flag|rho|m|mx|my|mz|chi|trap_id
94	 1	 27.809040379562163	 75.36610383315985	 0.001	 1	 0.002573970910134561	 0.0	 0	 0	 0	 0.4	 94 #atom_id|type|x0|y0|z0|e_flag|rho|m|mx|my|mz|chi|trap_id
95	 1	 39.18305191657993	 75.36610383315985	 0.001	 1	 0.002573970910134561	 0.0	 0	 0	 0	 0.4	 95 #atom_id|type|x0|y0|z0|e_flag|rho|m|mx|my|mz|chi|trap_id
96	 1	 44.55706345359769	 75.36610383315985	 0.001	 1	 0.002573970910134561	 0.0	 0	 0	 0	 0.4	 96 #atom_id|type|x0|y0|z0|e_flag|rho|m|mx|my|mz|chi|trap_id
97	 1	 55.93107499061545	 75.36610383315985	 0.001	 1	 0.002573970910134561	 0.0	 0	 0	 0	 0.4	 97 #atom_id|type|x0|y0|z0|e_flag|rho|m|mx|my|mz|chi|trap_id
98	 1	 64.30508652763321	 75.36610383315985	 0.001	 1	 0.002573970910134561	 0.0	 0	 0	 0	 0.4	 98 #atom_id|type|x0|y0|z0|e_flag|rho|m|mx|my|mz|chi|trap_id
99	 1	 69.67909806465097	 75.36610383315985	 0.001	 1	 0.002573970910134561	 0.0	 0	 0	 0	 0.4	 99 #atom_id|type|x0|y0|z0|e_flag|rho|m|mx|my|mz|chi|trap_id
100	 1	 78.05310960166874	 75.36610383315985	 0.001	 1	 0.002573970910134561	 0.0	 0	 0	 0	 0.4	 100 #atom_id|type|x0|y0|z0|e_flag|rho|m|mx|my|mz|chi|trap_id
101	 1	 3.4822867055684674e-16	 5.687005768508881	 0.001	 1	 0.002573970910134561	 0.0	 0	 0	 0	 0.4	 101 #atom_id|type|x0|y0|z0|e_flag|rho|m|mx|my|mz|chi|trap_id
102	 1	 8.374011537017761	 5.687005768508881	 0.001	 1	 0.002573970910134561	 0.0	 0	 0	 0	 0.4	 102 #atom_id|type|x0|y0|z0|e_flag|rho|m|mx|my|mz|chi|trap_id
103	 1	 16.748023074035522	 2.6870057685088806	 0.001	 1	 0.002573970910134561	 0.0	 0	 0	 0	 0.4	 103 #atom_id|type|x0|y0|z0|e_flag|rho|m|mx|my|mz|chi|trap_id
104	 1	 25.122034611053284	 5.687005768508881	 0.001	 1	 0.002573970910134561	 0.0	 0	 0	 0	 0.4	 104 #atom_id|type|x0|y0|z0|e_flag|rho|m|mx|my|mz|chi|trap_id
105	 1	 33.496046148071045	 2.6870057685088806	 0.001	 1	 0.002573970910134561	 0.0	 0	 0	 0	 0.4	 105 #atom_id|type|x0|y0|z0|e_flag|rho|m|mx|my|mz|chi|trap_id
106	 1	 41.87005768508881	 2.6870057685088806	 0.001	 1	 0.002573970910134561	 0.0	 0	 0	 0	 0.4	 106 #atom_id|type|x0|y0|z0|e_flag|rho|m|mx|my|mz|chi|trap_id
107	 1	 50.24406922210657	 5.687005768508881	 0.001	 1	 0.002573970910134561	 0.0	 0	 0	 0	 0.4	 107 #atom_id|type|x0|y0|z0|e_flag|rho|m|mx|my|mz|chi|trap_id
108	 1	 58.618080759124325	 5.687005768508881	 0.001	 1	 0.002573970910134561	 0.0	 0	 0	 0	 0.4	 108 #atom_id|type|x0|y0|z0|e_flag|rho|m|mx|my|mz|chi|trap_id
109	 1	 66.99209229614209	 2.6870057685088806	 0.001	 1	 0.002573970910134561	 0.0	 0	 0	 0	 0.4	 109 #atom_id|type|x0|y0|z0|e_flag|rho|m|mx|my|mz|chi|trap_id
110	 1	 75.36610383315985	 2.6870057685088806	 0.001	 1	 0.002573970910134561	 0.0	 0	 0	 0	 0.4	 110 #atom_id|type|x0|y0|z0|e_flag|rho|m|mx|my|mz|chi|trap_id
111	 1	 1.6453165068474375e-16	 11.061017305526642	 0.001	 1	 0.002573970910134561	 0.0	 0	 0	 0	 0.4	 111 #atom_id|type|x0|y0|z0|e_flag|rho|m|mx|my|mz|chi|trap_id
112	 1	 8.374011537017761	 14.061017305526642	 0.001	 1	 0.002573970910134561	 0.0	 0	 0	 0	 0.4	 112 #atom_id|type|x0|y0|z0|e_flag|rho|m|mx|my|mz|chi|trap_id
113	 1	 16.748023074035522	 11.061017305526642	 0.001	 1	 0.002573970910134561	 0.0	 0	 0	 0	 0.4	 113 #atom_id|type|x0|y0|z0|e_flag|rho|m|mx|my|mz|chi|trap_id
114	 1	 25.122034611053284	 14.061017305526642	 0.001	 1	 0.002573970910134561	 0.0	 0	 0	 0	 0.4	 114 #atom_id|type|x0|y0|z0|e_flag|rho|m|mx|my|mz|chi|trap_id
115	 1	 33.496046148071045	 14.061017305526642	 0.001	 1	 0.002573970910134561	 0.0	 0	 0	 0	 0.4	 115 #atom_id|type|x0|y0|z0|e_flag|rho|m|mx|my|mz|chi|trap_id
116	 1	 41.87005768508881	 11.061017305526642	 0.001	 1	 0.002573970910134561	 0.0	 0	 0	 0	 0.4	 116 #atom_id|type|x0|y0|z0|e_flag|rho|m|mx|my|mz|chi|trap_id
117	 1	 50.24406922210657	 11.061017305526642	 0.001	 1	 0.002573970910134561	 0.0	 0	 0	 0	 0.4	 117 #atom_id|type|x0|y0|z0|e_flag|rho|m|mx|my|mz|chi|trap_id
118	 1	 58.618080759124325	 14.061017305526642	 0.001	 1	 0.002573970910134561	 0.0	 0	 0	 0	 0.4	 118 #atom_id|type|x0|y0|z0|e_flag|rho|m|mx|my|mz|chi|trap_id
119	 1	 66.99209229614209	 14.061017305526642	 0.001	 1	 0.002573970910134561	 0.0	 0	 0	 0	 0.4	 119 #atom_id|type|x0|y0|z0|e_flag|rho|m|mx|my|mz|chi|trap_id
120	 1	 75.36610383315985	 11.061017305526642	 0.001	 1	 0.002573970910134561	 0.0	 0	 0	 0	 0.4	 120 #atom_id|type|x0|y0|z0|e_flag|rho|m|mx|my|mz|chi|trap_id
121	 1	 3.4822867055684674e-16	 22.435028842544405	 0.001	 1	 0.002573970910134561	 0.0	 0	 0	 0	 0.4	 121 #atom_id|type|x0|y0|z0|e_flag|rho|m|mx|my|mz|chi|trap_id
122	 1	 8.374011537017761	 22.435028842544405	 0.001	 1	 0.002573970910134561	 0.0	 0	 0	 0	 0.4	 122 #atom_id|type|x0|y0|z0|e_flag|rho|m|mx|my|mz|chi|trap_id
123	 1	 16.748023074035522	 22.435028842544405	 0.001	 1	 0.002573970910134561	 0.0	 0	 0	 0	 0.4	 123 #atom_id|type|x0|y0|z0|e_flag|rho|m|mx|my|mz|chi|trap_id
124	 1	 25.122034611053284	 19.435028842544405	 0.001	 1	 0.002573970910134561	 0.0	 0	 0	 0	 0.4	 124 #atom_id|type|x0|y0|z0|e_flag|rho|m|mx|my|mz|chi|trap_id
125	 1	 33.496046148071045	 22.435028842544405	 0.001	 1	 0.002573970910134561	 0.0	 0	 0	 0	 0.4	 125 #atom_id|type|x0|y0|z0|e_flag|rho|m|mx|my|mz|chi|trap_id
126	 1	 41.87005768508881	 22.435028842544405	 0.001	 1	 0.002573970910134561	 0.0	 0	 0	 0	 0.4	 126 #atom_id|type|x0|y0|z0|e_flag|rho|m|mx|my|mz|chi|trap_id
127	 1	 50.24406922210657	 22.435028842544405	 0.001	 1	 0.002573970910134561	 0.0	 0	 0	 0	 0.4	 127 #atom_id|type|x0|y0|z0|e_flag|rho|m|mx|my|mz|chi|trap_id
128	 1	 58.618080759124325	 19.435028842544405	 0.001	 1	 0.002573970910134561	 0.0	 0	 0	 0	 0.4	 128 #atom_id|type|x0|y0|z0|e_flag|rho|m|mx|my|mz|chi|trap_id
129	 1	 66.99209229614209	 22.435028842544405	 0.001	 1	 0.002573970910134561	 0.0	 0	 0	 0	 0.4	 129 #atom_id|type|x0|y0|z0|e_flag|rho|m|mx|my|mz|chi|trap_id
130	 1	 75.36610383315985	 19.435028842544405	 0.001	 1	 0.002573970910134561	 0.0	 0	 0	 0	 0.4	 130 #atom_id|type|x0|y0|z0|e_flag|rho|m|mx|my|mz|chi|trap_id
131	 1	 3.4822867055684674e-16	 30.809040379562163	 0.001	 1	 0.002573970910134561	 0.0	 0	 0	 0	 0.4	 131 #atom_id|type|x0|y0|z0|e_flag|rho|m|mx|my|mz|chi|trap_id
132	 1	 8.374011537017761	 30.809040379562163	 0.001	 1	 0.002573970910134561	 0.0	 0	 0	 0	 0.4	 132 #atom_id|type|x0|y0|z0|e_flag|rho|m|mx|my|mz|chi|trap_id
133	 1	 16.748023074035522	 30.809040379562163	 0.001	 1	 0.002573970910134561	 0.0	 0	 0	 0	 0.4	 133 #atom_id|type|x0|y0|z0|e_flag|rho|m|mx|my|mz|chi|trap_id
134	 1	 25.122034611053284	 30.809040379562163	 0.001	 1	 0.002573970910134561	 0.0	 0	 0	 0	 0.4	 134 #atom_id|type|x0|y0|z0|e_flag|rho|m|mx|my|mz|chi|trap_id
135	 1	 33.496046148071045	 27.809040379562163	 0.001	 1	 0.002573970910134561	 0.0	 0	 0	 0	 0.4	 135 #atom_id|type|x0|y0|z0|e_flag|rho|m|mx|my|mz|chi|trap_id
136	 1	 41.87005768508881	 27.809040379562163	 0.001	 1	 0.002573970910134561	 0.0	 0	 0	 0	 0.4	 136 #atom_id|type|x0|y0|z0|e_flag|rho|m|mx|my|mz|chi|trap_id
137	 1	 50.24406922210657	 30.809040379562163	 0.001	 1	 0.002573970910134561	 0.0	 0	 0	 0	 0.4	 137 #atom_id|type|x0|y0|z0|e_flag|rho|m|mx|my|mz|chi|trap_id
138	 1	 58.618080759124325	 30.809040379562163	 0.001	 1	 0.002573970910134561	 0.0	 0	 0	 0	 0.4	 138 #atom_id|type|x0|y0|z0|e_flag|rho|m|mx|my|mz|chi|trap_id
139	 1	 66.99209229614209	 27.809040379562163	 0.001	 1	 0.002573970910134561	 0.0	 0	 0	 0	 0.4	 139 #atom_id|type|x0|y0|z0|e_flag|rho|m|mx|my|mz|chi|trap_id
140	 1	 75.36610383315985	 27.809040379562163	 0.001	 1	 0.002573970910134561	 0.0	 0	 0	 0	 0.4	 140 #atom_id|type|x0|y0|z0|e_flag|rho|m|mx|my|mz|chi|trap_id
141	 1	 1.6453165068474375e-16	 36.18305191657993	 0.001	 1	 0.002573970910134561	 0.0	 0	 0	 0	 0.4	 141 #atom_id|type|x0|y0|z0|e_flag|rho|m|mx|my|mz|chi|trap_id
142	 1	 8.374011537017761	 36.18305191657993	 0.001	 1	 0.002573970910134561	 0.0	 0	 0	 0	 0.4	 142 #atom_id|type|x0|y0|z0|e_flag|rho|m|mx|my|mz|chi|trap_id
143	 1	 16.748023074035522	 39.18305191657993	 0.001	 1	 0.002573970910134561	 0.0	 0	 0	 0	 0.4	 143 #atom_id|type|x0|y0|z0|e_flag|rho|m|mx|my|mz|chi|trap_id
144	 1	 25.122034611053284	 39.18305191657993	 0.001	 1	 0.002573970910134561	 0.0	 0	 0	 0	 0.4	 144 #atom_id|type|x0|y0|z0|e_flag|rho|m|mx|my|mz|chi|trap_id
145	 1	 33.496046148071045	 39.18305191657993	 0.001	 1	 0.002573970910134561	 0.0	 0	 0	 0	 0.4	 145 #atom_id|type|x0|y0|z0|e_flag|rho|m|mx|my|mz|chi|trap_id
146	 1	 41.87005768508881	 36.18305191657993	 0.001	 1	 0.002573970910134561	 0.0	 0	 0	 0	 0.4	 146 #atom_id|type|x0|y0|z0|e_flag|rho|m|mx|my|mz|chi|trap_id
147	 1	 50.24406922210657	 36.18305191657993	 0.001	 1	 0.002573970910134561	 0.0	 0	 0	 0	 0.4	 147 #atom_id|type|x0|y0|z0|e_flag|rho|m|mx|my|mz|chi|trap_id
148	 1	 58.618080759124325	 39.18305191657993	 0.001	 1	 0.002573970910134561	 0.0	 0	 0	 0	 0.4	 148 #atom_id|type|x0|y0|z0|e_flag|rho|m|mx|my|mz|chi|trap_id
149	 1	 66.99209229614209	 39.18305191657993	 0.001	 1	 0.002573970910134561	 0.0	 0	 0	 0	 0.4	 149 #atom_id|type|x0|y0|z0|e_flag|rho|m|mx|my|mz|chi|trap_id
150	 1	 75.36610383315985	 39.18305191657993	 0.001	 1	 0.002573970910134561	 0.0	 0	 0	 0	 0.4	 150 #atom_id|type|x0|y0|z0|e_flag|rho|m|mx|my|mz|chi|trap_id
151	 1	 3.4822867055684674e-16	 47.55706345359769	 0.001	 1	 0.002573970910134561	 0.0	 0	 0	 0	 0.4	 151 #atom_id|type|x0|y0|z0|e_flag|rho|m|mx|my|mz|chi|trap_id
152	 1	 8.374011537017761	 47.55706345359769	 0.001	 1	 0.002573970910134561	 0.0	 0	 0	 0	 0.4	 152 #atom_id|type|x0|y0|z0|e_flag|rho|m|mx|my|mz|chi|trap_id
153	 1	 16.748023074035522	 47.55706345359769	 0.001	 1	 0.002573970910134561	 0.0	 0	 0	 0	 0.4	 153 #atom_id|type|x0|y0|z0|e_flag|rho|m|mx|my|mz|chi|trap_id
154	 1	 25.122034611053284	 44.55706345359769	 0.001	 1	 0.002573970910134561	 0.0	 0	 0	 0	 0.4	 154 #atom_id|type|x0|y0|z0|e_flag|rho|m|mx|my|mz|chi|trap_id
155	 1	 33.496046148071045	 44.55706345359769	 0.001	 1	 0.002573970910134561	 0.0	 0	 0	 0	 0.4	 155 #atom_id|type|x0|y0|z0|e_flag|rho|m|mx|my|mz|chi|trap_id
156	 1	 41.87005768508881	 44.55706345359769	 0.001	 1	 0.002573970910134561	 0.0	 0	 0	 0	 0.4	 156 #atom_id|type|x0|y0|z0|e_flag|rho|m|mx|my|mz|chi|trap_id
157	 1	 50.24406922210657	 44.55706345359769	 0.001	 1	 0.002573970910134561	 0.0	 0	 0	 0	 0.4	 157 #atom_id|type|x0|y0|z0|e_flag|rho|m|mx|my|mz|chi|trap_id
158	 1	 58.618080759124325	 47.55706345359769	 0.001	 1	 0.002573970910134561	 0.0	 0	 0	 0	 0.4	 158 #atom_id|type|x0|y0|z0|e_flag|rho|m|mx|my|mz|chi|trap_id
159	 1	 66.99209229614209	 44.55706345359769	 0.001	 1	 0.002573970910134561	 0.0	 0	 0	 0	 0.4	 159 #atom_id|type|x0|y0|z0|e_flag|rho|m|mx|my|mz|chi|trap_id
160	 1	 75.36610383315985	 47.55706345359769	 0.001	 1	 0.002573970910134561	 0.0	 0	 0	 0	 0.4	 160 #atom_id|type|x0|y0|z0|e_flag|rho|m|mx|my|mz|chi|trap_id
161	 1	 3.4822867055684674e-16	 55.93107499061545	 0.001	 1	 0.002573970910134561	 0.0	 0	 0	 0	 0.4	 161 #atom_id|type|x0|y0|z0|e_flag|rho|m|mx|my|mz|chi|trap_id
162	 1	 8.374011537017761	 55.93107499061545	 0.001	 1	 0.002573970910134561	 0.0	 0	 0	 0	 0.4	 162 #atom_id|type|x0|y0|z0|e_flag|rho|m|mx|my|mz|chi|trap_id
163	 1	 16.748023074035522	 55.93107499061545	 0.001	 1	 0.002573970910134561	 0.0	 0	 0	 0	 0.4	 163 #atom_id|type|x0|y0|z0|e_flag|rho|m|mx|my|mz|chi|trap_id
164	 1	 25.122034611053284	 52.93107499061545	 0.001	 1	 0.002573970910134561	 0.0	 0	 0	 0	 0.4	 164 #atom_id|type|x0|y0|z0|e_flag|rho|m|mx|my|mz|chi|trap_id
165	 1	 33.496046148071045	 55.93107499061545	 0.001	 1	 0.002573970910134561	 0.0	 0	 0	 0	 0.4	 165 #atom_id|type|x0|y0|z0|e_flag|rho|m|mx|my|mz|chi|trap_id
166	 1	 41.87005768508881	 52.93107499061545	 0.001	 1	 0.002573970910134561	 0.0	 0	 0	 0	 0.4	 166 #atom_id|type|x0|y0|z0|e_flag|rho|m|mx|my|mz|chi|trap_id
167	 1	 50.24406922210657	 52.93107499061545	 0.001	 1	 0.002573970910134561	 0.0	 0	 0	 0	 0.4	 167 #atom_id|type|x0|y0|z0|e_flag|rho|m|mx|my|mz|chi|trap_id
168	 1	 58.618080759124325	 55.93107499061545	 0.001	 1	 0.002573970910134561	 0.0	 0	 0	 0	 0.4	 168 #atom_id|type|x0|y0|z0|e_flag|rho|m|mx|my|mz|chi|trap_id
169	 1	 66.99209229614209	 55.93107499061545	 0.001	 1	 0.002573970910134561	 0.0	 0	 0	 0	 0.4	 169 #atom_id|type|x0|y0|z0|e_flag|rho|m|mx|my|mz|chi|trap_id
170	 1	 75.36610383315985	 55.93107499061545	 0.001	 1	 0.002573970910134561	 0.0	 0	 0	 0	 0.4	 170 #atom_id|type|x0|y0|z0|e_flag|rho|m|mx|my|mz|chi|trap_id
171	 1	 3.4822867055684674e-16	 64.30508652763321	 0.001	 1	 0.002573970910134561	 0.0	 0	 0	 0	 0.4	 171 #atom_id|type|x0|y0|z0|e_flag|rho|m|mx|my|mz|chi|trap_id
172	 1	 8.374011537017761	 64.30508652763321	 0.001	 1	 0.002573970910134561	 0.0	 0	 0	 0	 0.4	 172 #atom_id|type|x0|y0|z0|e_flag|rho|m|mx|my|mz|chi|trap_id
173	 1	 16.748023074035522	 64.30508652763321	 0.001	 1	 0.002573970910134561	 0.0	 0	 0	 0	 0.4	 173 #atom_id|type|x0|y0|z0|e_flag|rho|m|mx|my|mz|chi|trap_id
174	 1	 25.122034611053284	 61.30508652763321	 0.001	 1	 0.002573970910134561	 0.0	 0	 0	 0	 0.4	 174 #atom_id|type|x0|y0|z0|e_flag|rho|m|mx|my|mz|chi|trap_id
175	 1	 33.496046148071045	 64.30508652763321	 0.001	 1	 0.002573970910134561	 0.0	 0	 0	 0	 0.4	 175 #atom_id|type|x0|y0|z0|e_flag|rho|m|mx|my|mz|chi|trap_id
176	 1	 41.87005768508881	 61.30508652763321	 0.001	 1	 0.002573970910134561	 0.0	 0	 0	 0	 0.4	 176 #atom_id|type|x0|y0|z0|e_flag|rho|m|mx|my|mz|chi|trap_id
177	 1	 50.24406922210657	 64.30508652763321	 0.001	 1	 0.002573970910134561	 0.0	 0	 0	 0	 0.4	 177 #atom_id|type|x0|y0|z0|e_flag|rho|m|mx|my|mz|chi|trap_id
178	 1	 58.618080759124325	 61.30508652763321	 0.001	 1	 0.002573970910134561	 0.0	 0	 0	 0	 0.4	 178 #atom_id|type|x0|y0|z0|e_flag|rho|m|mx|my|mz|chi|trap_id
179	 1	 66.99209229614209	 61.30508652763321	 0.001	 1	 0.002573970910134561	 0.0	 0	 0	 0	 0.4	 179 #atom_id|type|x0|y0|z0|e_flag|rho|m|mx|my|mz|chi|trap_id
180	 1	 75.36610383315985	 64.30508652763321	 0.001	 1	 0.002573970910134561	 0.0	 0	 0	 0	 0.4	 180 #atom_id|type|x0|y0|z0|e_flag|rho|m|mx|my|mz|chi|trap_id
181	 1	 3.4822867055684674e-16	 72.67909806465097	 0.001	 1	 0.002573970910134561	 0.0	 0	 0	 0	 0.4	 181 #atom_id|type|x0|y0|z0|e_flag|rho|m|mx|my|mz|chi|trap_id
182	 1	 8.374011537017761	 72.67909806465097	 0.001	 1	 0.002573970910134561	 0.0	 0	 0	 0	 0.4	 182 #atom_id|type|x0|y0|z0|e_flag|rho|m|mx|my|mz|chi|trap_id
183	 1	 16.748023074035522	 69.67909806465097	 0.001	 1	 0.002573970910134561	 0.0	 0	 0	 0	 0.4	 183 #atom_id|type|x0|y0|z0|e_flag|rho|m|mx|my|mz|chi|trap_id
184	 1	 25.122034611053284	 69.67909806465097	 0.001	 1	 0.002573970910134561	 0.0	 0	 0	 0	 0.4	 184 #atom_id|type|x0|y0|z0|e_flag|rho|m|mx|my|mz|chi|trap_id
185	 1	 33.496046148071045	 72.67909806465097	 0.001	 1	 0.002573970910134561	 0.0	 0	 0	 0	 0.4	 185 #atom_id|type|x0|y0|z0|e_flag|rho|m|mx|my|mz|chi|trap_id
186	 1	 41.87005768508881	 69.67909806465097	 0.001	 1	 0.002573970910134561	 0.0	 0	 0	 0	 0.4	 186 #atom_id|type|x0|y0|z0|e_flag|rho|m|mx|my|mz|chi|trap_id
187	 1	 50.24406922210657	 69.67909806465097	 0.001	 1	 0.002573970910134561	 0.0	 0	 0	 0	 0.4	 187 #atom_id|type|x0|y0|z0|e_flag|rho|m|mx|my|mz|chi|trap_id
188	 1	 58.618080759124325	 72.67909806465097	 0.001	 1	 0.002573970910134561	 0.0	 0	 0	 0	 0.4	 188 #atom_id|type|x0|y0|z0|e_flag|rho|m|mx|my|mz|chi|trap_id
189	 1	 66.99209229614209	 72.67909806465097	 0.001	 1	 0.002573970910134561	 0.0	 0	 0	 0	 0.4	 189 #atom_id|type|x0|y0|z0|e_flag|rho|m|mx|my|mz|chi|trap_id